number,name,symbol,name_symbol,appearance,atomic_number,group_block,period,element_category,atomic_weight,electron_configuration,per_shell,color,phase,melting_point,,boiling_point,density_at_stp,when_liquid_at_mp,when_liquid_at_bp,triple_point,critical_point,ionization_energies,covalent_radius,van_der_waals_radius
113,Ununtrium,Uut,"ununtrium, Uut",,113,"group 13, p-block",7,"unknown, but probably a post-transition metal",286,[Rn] 5f14 6d10 7s2 7p1 (predicted),2,,solid (predicted),700,,1430,,,,,,"1st: 704.9 kJ/mol (predicted), 2nd: 2238.5 kJ/mol (predicted), 3rd: 3203.3 kJ/mol (predicted), (more)",172–180 pm (extrapolated),
114,Ununquadium,Uuq,"flerovium, Fl",,114,"group 14 (carbon group), p-block",7,post-transition metal,289,[Rn] 5f14 6d10 7s2 7p2 (predicted),2,,solid (predicted),340,,420,,,,,,"1st: 823.9 kJ/mol (predicted), 2nd: 1601.6 kJ/mol (predicted), 3rd: 3367.3 kJ/mol (predicted), (more)",171–177 pm (extrapolated),
115,Ununpentium,Uup,"ununpentium, Uup",,115,"group 15 (pnictogens), p-block",7,"unknown, but probably a post-transition metal",289,[Rn] 5f14 6d10 7s2 7p3 (predicted),2,,solid (predicted),670,,"~1400 K (~1100 °C, ~2000 °F) (predicted)",,,,,,"1st: 538.4 kJ/mol (predicted), 2nd: 1756.0 kJ/mol (predicted), 3rd: 2653.3 kJ/mol (predicted), (more)",156–158 pm (extrapolated),
116,Ununhexium,Uuh,"livermorium, Lv",,116,"group 16 (chalcogens), p-block",7,"unknown, but probably a post-transition metal",293,[Rn] 5f14 6d10 7s2 7p4 (predicted),2,,solid (predicted),"637–780 K (364–507 °C, 687–944 °F) (extrapolated)",,"1035–1135 K (762–862 °C, 1403–1583 °F) (extrapolated)",,,,,,"1st: 723.6 kJ/mol (predicted), 2nd: 1331.5 kJ/mol (predicted), 3rd: 2846.3 kJ/mol (predicted), (more)",162–166 pm (extrapolated),
117,Ununseptium,Uus,"ununseptium, Uus",semimetallic (predicted),117,"group 17, p-block",7,"unknown, but probably a post-transition metal",294,[Rn] 5f14 6d10 7s2 7p5 (predicted),2,,solid (predicted),"623–823 K (350–550 °C, 662–1022 °F) (predicted)",,883,,,,,,"1st: 742.9 kJ/mol (predicted), 2nd: 1785.0–1920.1 kJ/mol (extrapolated)",156–157 pm (extrapolated),